# vtk DataFile Version 2.0
test
ASCII
DATASET UNSTRUCTURED_GRID
POINTS 10000 float
-0.7956729161471254 0.27696251411348427 0.5386987806612036
0.6342822617206075 0.7705256438973968 -0.06305747031948572
0.19437677226319044 0.9091870784932974 0.3682343366734919
0.33677145585593976 -0.4363066550256504 -0.8343988790147066
0.8207155202079781 -0.566893204012087 -0.07112053244076644
-0.18863016071728184 0.26018401780322326 0.9469545603393779
-0.04240975346076465 -0.7179887869456332 0.6947614803885831
-0.026454821725829348 0.11546463508577746 -0.9929592441041892
-0.8286988168482182 0.5543134418243975 0.07742660503440257
0.5330217637178651 0.6714106451671286 -0.514874300154277
-0.029682269933547403 -0.10249218972449738 0.994290859807667
-0.006824275464252264 0.5817613904465112 -0.8133308759970508
0.18305808854879846 -0.8913198259385092 -0.4147754863848705
0.2362959600249767 -0.879834270302617 0.41237831669104064
0.4348624898683005 -0.18647121519249563 0.8809784905491032
0.8879504510098714 0.4013726201835437 0.22459745394452435
-0.3870205298021461 -0.9164378070641479 -0.10176863610721032
-0.6267060803995973 -0.2460466585965896 0.7393920006218804
0.897337884088547 -0.44089627540089704 -0.019879540163334708
-0.006843123140633719 0.9875106601510657 0.15740351887327253
0.5571188359957513 0.7862915914291317 0.2671406667405447
-0.42199770671139875 0.9061399770276757 0.028779811719392256
-0.16652565136017433 -0.781593602010076 0.6011494396038182
-0.2798059106082549 -0.9532380147374744 -0.11421882352766466
0.9822159730655642 -0.15043258582604033 -0.11234687079112637
-0.02773140093274528 0.7894961957696682 -0.6131286376181828
-0.46169298154108396 -0.26754900908908924 0.8457287499731523
0.8784730919464403 0.3173596084853674 -0.3571664956684424
0.23865083442440096 0.5071663729245037 -0.8281473597151296
0.2009720659046296 -0.5423984508899649 0.8157292131572778
-0.043616658046030224 -0.5703820091586697 0.8202206719956617
-0.48736451474907877 -0.8345945109373263 0.2567641565263348
-0.1278430444174744 0.549220746025025 0.8258406190844494
-0.7903819579827467 -0.32352366112249215 -0.5202199546242519
-0.8756723481336348 -0.4772690804898188 -0.07356740801828665
-0.9346695387617721 0.07516610276099472 -0.3474808056664134
-0.7125871142961131 0.5748862302960533 0.4021509999429709
0.6690195594719598 -0.0011377054362208742 0.7432439267631357
-0.9159988092862948 0.2716821078815302 -0.29518640490906556
-0.42978461591847905 0.06617581960771722 -0.9005031620261266
0.17976658924359712 -0.7961750428220206 -0.5777449909597465
-0.4278910778285684 0.23039217929713446 0.8739729224829698
0.5922315018322295 0.7279074105359565 0.34556135479011596
0.5567305050655622 -0.41012356268698064 -0.7223917275677942
0.3242260939696644 0.4528951105549257 -0.830519993031243
0.6041342948955487 0.6686795627405019 0.43346210457689294
-0.9343924581695838 0.10750423141990652 -0.3396374159933173
0.622998559585747 -0.7819932075210748 -0.01895832653441798
-0.9337092897552248 -0.3087103429095365 0.18134190471446465
0.7323308514825346 -0.23616672898464977 -0.6386836463285692
-0.35944056186964096 -0.7999128240944906 -0.4805642062534552
-0.955042659808039 0.02821078840255502 0.29512314271248274
-0.6470415808739044 0.41941063118563804 0.6367353571686305
-0.2502008234942831 0.13164697483542367 0.9592020756542721
-0.8440631104773099 -0.4996200927929508 0.19477481461660284
0.8587944332310341 0.4783240122944145 -0.18351637723636505
0.3250772752660085 -0.9181604790673055 -0.2265084982611556
-0.5435321702516314 0.13619630141790193 -0.8282652638989731
0.7021386613480445 0.26733627981998764 -0.6599489478227731
0.8134964371629662 -0.3841307904693673 0.4366544200355005
0.9153066849234086 -0.32891428363191927 0.2324415336324841
-0.05530004842539201 0.5738507228780029 0.8170907247647246
0.17934568360261022 0.9504144575968623 0.25406196992854824
0.1787544542909794 -0.7831931882765286 -0.5955294072574251
-0.39077802823287033 0.692372129091399 -0.6065586266041174
0.3434676197246618 -0.1720520057278144 -0.9232703296032594
0.4017669329664465 -0.1981337048402401 -0.8940505391648816
0.24876253911040108 -0.7806397730239092 0.5733399898040654
0.35814978523858204 0.20467900315629378 0.9109529279828368
-0.2016979950905085 0.08188716064829324 0.9760186533552675
-0.9997826089761065 0.0007784942194615335 0.020835756182106424
0.18092773982797924 0.714137976187183 0.6762189763146353
0.6628759131438313 0.6744246663642959 0.32518747388720226
0.9835110155183867 -0.17699128763565117 0.037150591584331316
-0.9195915212708327 -0.3021792838047691 -0.2510759137114358
-0.4422680633734439 0.8658853119555361 0.23375539920944588
0.6043248491183412 0.1583601565177397 -0.7808415572737988
0.135278858473872 0.48494537298122387 -0.8640182959139857
0.08999821580122697 -0.983149598035238 -0.1591137613022382
-0.7486253809885336 -0.5301010070192087 0.39818709333301294
-0.8579416658525554 -0.5131045210383245 0.02568751611530473
-0.7216780571706201 -0.288988025854883 -0.6290204310759204
0.005141470898517254 0.7374799444656761 0.6753494627138625
0.8388776275753143 -0.4763945583491493 0.26331074936077203
-0.555299965410659 -0.21466251528196328 0.8034687006646506
-0.9093022999864596 -0.08447565491437135 -0.40747170572460956
0.40120119856413805 0.8925141833944483 -0.20604861249336315
0.9081348232284127 0.011263176557355396 0.4185263237763397
-0.6888287078434002 0.7049731694173758 0.1689018698902165
0.03202905759623282 0.6738112020559522 0.7382090513217852
0.7078954661777885 0.5448477763863766 -0.4494718117209937
0.7856198481802691 -0.5837522677564687 0.20502376456008986
-0.46929353645231964 -0.3757599708623372 -0.7991045119016729
0.17919549298982065 0.5863584705811805 0.7899827335263943
0.586090731363843 -0.5927097554645864 -0.5524425765511796
0.43567550305272335 0.6605456380160782 -0.6114460860433149
0.5334944855617745 -0.8428207971328809 -0.07096997812788652
0.20288884941269172 -0.3357944375388709 -0.9198250977778044
-0.987005605975187 0.13590871140804106 -0.08572488516737575
-0.16072329263768131 0.956941996297948 0.24172306245991582
0.7398490229331943 -0.10895665322281288 -0.663891460242773
0.598870409768233 -0.7870037397033902 -0.14825432876279598
0.8033267791414981 -0.3389067796106953 -0.48970223671947255
-0.5760204115766326 -0.5300052371911718 0.6223302451247379
-0.16939534699053735 -0.6122243049498597 0.772325460441786
-0.8825810825670181 -0.330924966286713 0.333974998140532
0.129424575649316 -0.8731500142228984 -0.46995567012277517
-0.22566791676286968 0.8611472130385229 -0.4555210959109264
-0.6277616313323666 -0.7780592685565417 0.023218717453487914
-0.8714115297813182 0.470414170034543 -0.13911309929296722
-0.45094611296933595 0.07659255214966677 0.8892587835681172
0.020366169243703918 -0.3082024554229568 0.9511027629134494
-0.4792179271349578 -0.6229149982863365 0.6183260331106946
-0.10027524245166457 -0.9860975873810337 -0.1325006562722033
0.2726934384961406 -0.21573390085965885 0.9376018198686618
0.6318126575181537 -0.5685479474107387 0.5268453257787185
-0.6976830344780959 -0.047186558600179736 -0.7148509019990867
0.5523322431674428 -0.7755156836801542 -0.30578508388036796
-0.18084642297731254 0.6573821168909804 0.7315349094118779
-0.1193103283980178 0.9749712972504143 -0.18760601023261847
0.7148111146267558 -0.5762679994425628 -0.39618210866282366
-0.48497854394747186 -0.4991363681494649 0.7180937946404717
0.3969673030805295 -0.5196984115657612 0.7565252945546472
0.3411236017101822 -0.615150891967488 0.7107911567175529
-0.48519425067943767 0.6208813991978955 0.6157051463465955
0.9821249965909116 -0.07434234962096511 -0.1729268808604838
-0.3671325071408273 0.9209007937180396 -0.1309788163405643
0.47013899126568903 -0.07285739524111898 0.8795800866608792
0.03613747202124735 -0.8921234550444946 -0.45034411739844793
-0.7166404442799111 -0.5080498820372512 -0.47781983109141324
0.5259037224057773 0.8334631802350694 0.1696007133009505
0.664892999653874 0.2759109091850172 -0.6941112801301896
-0.757605025884793 0.2070109367544043 0.6190162330813032
-0.6736027174287555 -0.7185324415391235 0.17311992816663846
-0.7064752970493062 -0.6749901337625505 -0.212793265829323
-0.3776411709959548 -0.9134933769429257 0.15138360627959035
0.786232126045494 0.15069378659337618 -0.5992749174261613
-0.6600346086532883 0.46423637934144707 0.5906258540530074
-0.15099774565794938 0.3173500109330887 0.9362097261655562
0.7066659599377614 -0.4791262588086252 -0.5206354282847956
-0.8960313621729199 -0.07920353680821304 -0.4368690853786883
-0.9003369741781668 -0.16068633950652791 -0.40444187867194925
-0.5614471364760284 -0.8178001448241934 0.12641216740644934
0.39328784992599053 0.5451633333445088 0.7403523533273164
0.02707009279667643 0.5679673407767593 -0.8226058046761864
-0.5512689855683398 0.8284255187745192 0.09906394598249291
-0.13882867210082359 -0.22616950027685825 0.9641441577623329
-0.31551780883494307 0.1347498118474603 0.9393034656143191
0.28315543507489127 -0.382428687778516 -0.8795290207557402
0.4506335804498759 -0.06451650691790319 0.8903746382877475
-0.4278091245192726 0.35646947610303553 0.8306075280087948
0.5167700377788447 0.29753368151094894 0.8027592643006947
-0.08634973794950214 0.9908415429765385 0.10381117217296376
0.37483126118508353 -0.5342511423866251 -0.7576788518211299
0.6816136956771031 0.21121360037611328 0.7005651896016252
-0.08824414263961329 -0.9926393569150164 0.08294623796859302
-0.4611557620652196 -0.5694956298751865 0.6804484482068507
-0.04969915626498267 -0.7810107231707765 0.6225369420032916
-0.09525007920387812 0.011327323698247412 -0.9953889260733666
0.14529659330330746 0.5879385297094335 0.7957494487950103
0.037778722724364375 0.9931024043505476 -0.11099721880514446
-0.744203085049377 0.18188311707760593 -0.6427132330403067
-0.29172955065781697 -0.08510992769862773 0.9527067594386651
0.8555353906346256 -0.43926490243315963 0.27405390138081454
[...]
POINT_DATA 10000
VECTORS vector float
0.27696251411348427 0.7956729161471254 0
0.7705256438973968 -0.6342822617206075 0
0.9091870784932974 -0.19437677226319044 0
-0.4363066550256504 -0.33677145585593976 0
-0.566893204012087 -0.8207155202079781 0
0.26018401780322326 0.18863016071728184 0
-0.7179887869456332 0.04240975346076465 0
0.11546463508577746 0.026454821725829348 0
0.5543134418243975 0.8286988168482182 0
0.6714106451671286 -0.5330217637178651 0
-0.10249218972449738 0.029682269933547403 0
0.5817613904465112 0.006824275464252264 0
-0.8913198259385092 -0.18305808854879846 0
-0.879834270302617 -0.2362959600249767 0
-0.18647121519249563 -0.4348624898683005 0
0.4013726201835437 -0.8879504510098714 0
-0.9164378070641479 0.3870205298021461 0
-0.2460466585965896 0.6267060803995973 0
-0.44089627540089704 -0.897337884088547 0
0.9875106601510657 0.006843123140633719 0
0.7862915914291317 -0.5571188359957513 0
0.9061399770276757 0.42199770671139875 0
-0.781593602010076 0.16652565136017433 0
-0.9532380147374744 0.2798059106082549 0
-0.15043258582604033 -0.9822159730655642 0
0.7894961957696682 0.02773140093274528 0
-0.26754900908908924 0.46169298154108396 0
0.3173596084853674 -0.8784730919464403 0
0.5071663729245037 -0.23865083442440096 0
-0.5423984508899649 -0.2009720659046296 0
-0.5703820091586697 0.043616658046030224 0
-0.8345945109373263 0.48736451474907877 0
0.549220746025025 0.1278430444174744 0
-0.32352366112249215 0.7903819579827467 0
-0.4772690804898188 0.8756723481336348 0
0.07516610276099472 0.9346695387617721 0
0.5748862302960533 0.7125871142961131 0
-0.0011377054362208742 -0.6690195594719598 0
0.2716821078815302 0.9159988092862948 0
0.06617581960771722 0.42978461591847905 0
-0.7961750428220206 -0.17976658924359712 0
0.23039217929713446 0.4278910778285684 0
0.7279074105359565 -0.5922315018322295 0
-0.41012356268698064 -0.5567305050655622 0
0.4528951105549257 -0.3242260939696644 0
0.6686795627405019 -0.6041342948955487 0
0.10750423141990652 0.9343924581695838 0
-0.7819932075210748 -0.622998559585747 0
-0.3087103429095365 0.9337092897552248 0
-0.23616672898464977 -0.7323308514825346 0
-0.7999128240944906 0.35944056186964096 0
0.02821078840255502 0.955042659808039 0
0.41941063118563804 0.6470415808739044 0
0.13164697483542367 0.2502008234942831 0
-0.4996200927929508 0.8440631104773099 0
0.4783240122944145 -0.8587944332310341 0
-0.9181604790673055 -0.3250772752660085 0
0.13619630141790193 0.5435321702516314 0
0.26733627981998764 -0.7021386613480445 0
-0.3841307904693673 -0.8134964371629662 0
-0.32891428363191927 -0.9153066849234086 0
0.5738507228780029 0.05530004842539201 0
0.9504144575968623 -0.17934568360261022 0
-0.7831931882765286 -0.1787544542909794 0
0.692372129091399 0.39077802823287033 0
-0.1720520057278144 -0.3434676197246618 0
-0.1981337048402401 -0.4017669329664465 0
-0.7806397730239092 -0.24876253911040108 0
0.20467900315629378 -0.35814978523858204 0
0.08188716064829324 0.2016979950905085 0
0.0007784942194615335 0.9997826089761065 0
0.714137976187183 -0.18092773982797924 0
0.6744246663642959 -0.6628759131438313 0
-0.17699128763565117 -0.9835110155183867 0
-0.3021792838047691 0.9195915212708327 0
0.8658853119555361 0.4422680633734439 0
0.1583601565177397 -0.6043248491183412 0
0.48494537298122387 -0.135278858473872 0
-0.983149598035238 -0.08999821580122697 0
-0.5301010070192087 0.7486253809885336 0
-0.5131045210383245 0.8579416658525554 0
-0.288988025854883 0.7216780571706201 0
0.7374799444656761 -0.005141470898517254 0
-0.4763945583491493 -0.8388776275753143 0
-0.21466251528196328 0.555299965410659 0
-0.08447565491437135 0.9093022999864596 0
0.8925141833944483 -0.40120119856413805 0
0.011263176557355396 -0.9081348232284127 0
0.7049731694173758 0.6888287078434002 0
0.6738112020559522 -0.03202905759623282 0
0.5448477763863766 -0.7078954661777885 0
-0.5837522677564687 -0.7856198481802691 0
-0.3757599708623372 0.46929353645231964 0
0.5863584705811805 -0.17919549298982065 0
-0.5927097554645864 -0.586090731363843 0
0.6605456380160782 -0.43567550305272335 0
-0.8428207971328809 -0.5334944855617745 0
-0.3357944375388709 -0.20288884941269172 0
0.13590871140804106 0.987005605975187 0
0.956941996297948 0.16072329263768131 0
-0.10895665322281288 -0.7398490229331943 0
-0.7870037397033902 -0.598870409768233 0
-0.3389067796106953 -0.8033267791414981 0
-0.5300052371911718 0.5760204115766326 0
-0.6122243049498597 0.16939534699053735 0
-0.330924966286713 0.8825810825670181 0
-0.8731500142228984 -0.129424575649316 0
0.8611472130385229 0.22566791676286968 0
-0.7780592685565417 0.6277616313323666 0
0.470414170034543 0.8714115297813182 0
0.07659255214966677 0.45094611296933595 0
-0.3082024554229568 -0.020366169243703918 0
-0.6229149982863365 0.4792179271349578 0
-0.9860975873810337 0.10027524245166457 0
-0.21573390085965885 -0.2726934384961406 0
-0.5685479474107387 -0.6318126575181537 0
-0.047186558600179736 0.6976830344780959 0
-0.7755156836801542 -0.5523322431674428 0
0.6573821168909804 0.18084642297731254 0
0.9749712972504143 0.1193103283980178 0
-0.5762679994425628 -0.7148111146267558 0
-0.4991363681494649 0.48497854394747186 0
-0.5196984115657612 -0.3969673030805295 0
-0.615150891967488 -0.3411236017101822 0
0.6208813991978955 0.48519425067943767 0
-0.07434234962096511 -0.9821249965909116 0
0.9209007937180396 0.3671325071408273 0
-0.07285739524111898 -0.47013899126568903 0
-0.8921234550444946 -0.03613747202124735 0
-0.5080498820372512 0.7166404442799111 0
0.8334631802350694 -0.5259037224057773 0
0.2759109091850172 -0.664892999653874 0
0.2070109367544043 0.757605025884793 0
-0.7185324415391235 0.6736027174287555 0
-0.6749901337625505 0.7064752970493062 0
-0.9134933769429257 0.3776411709959548 0
0.15069378659337618 -0.786232126045494 0
0.46423637934144707 0.6600346086532883 0
0.3173500109330887 0.15099774565794938 0
-0.4791262588086252 -0.7066659599377614 0
-0.07920353680821304 0.8960313621729199 0
-0.16068633950652791 0.9003369741781668 0
-0.8178001448241934 0.5614471364760284 0
0.5451633333445088 -0.39328784992599053 0
0.5679673407767593 -0.02707009279667643 0
0.8284255187745192 0.5512689855683398 0
-0.22616950027685825 0.13882867210082359 0
0.1347498118474603 0.31551780883494307 0
-0.382428687778516 -0.28315543507489127 0
-0.06451650691790319 -0.4506335804498759 0
0.35646947610303553 0.4278091245192726 0
0.29753368151094894 -0.5167700377788447 0
0.9908415429765385 0.08634973794950214 0
-0.5342511423866251 -0.37483126118508353 0
0.21121360037611328 -0.6816136956771031 0
-0.9926393569150164 0.08824414263961329 0
-0.5694956298751865 0.4611557620652196 0
-0.7810107231707765 0.04969915626498267 0
0.011327323698247412 0.09525007920387812 0
0.5879385297094335 -0.14529659330330746 0
0.9931024043505476 -0.037778722724364375 0
0.18188311707760593 0.744203085049377 0
-0.08510992769862773 0.29172955065781697 0
-0.43926490243315963 -0.8555353906346256 0
-0.4683751628851757 0.8767052340980427 0
-0.25140736956558124 0.4034730508117356 0
-0.3794987327425128 -0.21266407051903097 0
0.03621397323775703 -0.5945585204419644 0
0.2803231023815795 -0.8271062506109972 0
0.13004371543292073 0.8273142865325428 0
-0.5568318971049568 -0.029959029863566817 0
-0.6630108478129872 -0.17078948036360825 0
-0.6518495541670576 0.14742033531199933 0
0.049809436863144395 0.8072429961524338 0
-0.288951240403453 -0.9210879497301162 0
-0.574172079334629 -0.4027384349476708 0
0.30772882405679375 -0.6194509705350404 0
-0.5364652949377451 -0.23459146873349876 0
-0.6398714136774332 0.694899412245202 0
0.6333489808143837 0.760936853316406 0
0.5710795880975267 0.17451623686147305 0
0.390225140256962 0.9205954971246674 0
-0.7119046130836251 -0.12912598252282698 0
-0.7623604955126861 0.4853410275512389 0
0.6683646170194419 0.08750392895885777 0
-0.5818413907986019 -0.645853805653541 0
0.5798989932521692 -0.8140666988022 0
0.01699524932590744 -0.9994813059744065 0
-0.5211955976641067 -0.6956693083855888 0
0.8405963881160117 0.5414590645095143 0
-0.1645724453879736 -0.7978432493615701 0
-0.7617144920038315 -0.6139623253776377 0
0.47607397057620116 0.7530931490709588 0
-0.5050314720548105 -0.8401313065082122 0
-0.8691202573241169 -0.4429531775481028 0
0.9385724555847827 0.30705269558764287 0
0.07439367561838149 -0.8139174326062733 0
-0.3754787612313012 -0.7833039295348291 0
-0.1804134774601445 -0.39724751044589846 0
0.488720493036007 0.45212902115993686 0
-0.5257839874189059 0.7815228202246646 0
0.11646458095099019 -0.723619073562179 0
0.2918907123742187 0.5753988049283425 0
0.26441067860584344 -0.006718468204932405 0
-0.24095276797951473 0.06149549523171805 0
-0.4496534327776202 -0.8733227314250951 0
-0.680263559364987 -0.5581829004920477 0
-0.4631771941432012 0.8862610934254933 0
0.8323441468738649 -0.0044280041986972185 0
0.11175495892776321 0.9902242363145789 0
-0.23745974591595054 -0.34740891103644433 0
-0.014990956632636178 -0.5461294123983779 0
0.6824549137721693 0.7197696161732479 0
0.9411074647293829 -0.33810213057161115 0
0.19540774784903583 0.55609447710242 0
-0.5362932656874941 0.7686582927813798 0
0.08211754522166616 0.6544511317067828 0
-0.6706416618564024 -0.5083269875634587 0
0.40303507307875336 0.23997658701340835 0
-0.4834530540361451 0.8563401845829124 0
0.044711783991850426 0.4646909707224451 0
0.6880983029888683 -0.5012399870757037 0
-0.32888766243508905 0.9443179426811249 0
-0.9057168211188502 -0.38682717917605625 0
-0.35549391407479003 0.2779819538074301 0
-0.5297416924552356 -0.16038873748893714 0
0.4717844237516128 -0.8782071970135301 0
0.6141171866399111 0.5664729044810303 0
-0.7339531220582292 0.5780457504812618 0
0.1188357917483047 0.5868780752442618 0
-0.2917653665122642 0.2866650306598267 0
-0.901401412935679 -0.39426521657926766 0
0.0719039423380702 -0.9394649083134811 0
0.3199410298404943 -0.5392758203194349 0
-0.2957844618884238 0.014038852631794703 0
-0.03478353490215999 -0.9944568486871764 0
0.28836538407090095 0.48647442616831854 0
0.7936976125634322 -0.5858481674768816 0
-0.2712339277932371 -0.3687636806843783 0
-0.8033975630723293 0.05352184073230116 0
-0.008676965567229217 0.9714863351646714 0
-0.7351933564356024 0.18644254354413275 0
0.33340323914872644 0.04649757555489157 0
0.5338000764856692 -0.839517814190226 0
0.6519532121148923 -0.7239509770860744 0
-0.8507563641640818 -0.42035789652268796 0
-0.6695262167022558 0.38981031631039115 0
0.15101426339677937 0.9126447948403347 0
-0.33368551685035014 -0.6828146601535738 0
-0.08746796144994944 0.6688840479514644 0
-0.3510224593820869 0.9359290770827337 0
0.7182724994497042 -0.510083122256967 0
-0.6356501487559852 0.2370511398497401 0
-0.14648573037719928 -0.920642101794007 0
-0.7840177205289398 0.2221708467213691 0
0.1299707143585155 0.9492061620154372 0
0.3054729733146605 0.8685558158311806 0
-0.6020708312336018 -0.6828539189533329 0
-0.37196875881032526 -0.6605665675723658 0
0.25987615338307346 0.8471920670609708 0
0.36351247115236307 -0.323644424937818 0
0.6133224078456727 -0.4466759434508809 0
-0.8184712411852109 0.15279346799344923 0
-0.3166452400571088 0.9224596201372355 0
0.9315657711621252 -0.3264276460875387 0
-0.02722468019202254 -0.09455153080633177 0
-0.12376172126977694 -0.1745266493311389 0
0.128070027205368 0.24904828796678408 0
-0.5425949732342557 0.6533547903193367 0
0.18265027375089055 0.8312293647989968 0
-0.24776137604479723 0.8210350386122749 0
0.9282981114210197 -0.23430951170233963 0
0.5800502028752416 0.47693759251140816 0
0.5431700986620371 0.6945995163715065 0
-0.41224463665217187 0.8488280065982219 0
-0.7224271760414172 0.684489847068662 0
-0.6253696614234024 -0.42884306381051956 0
-0.6370279062342584 -0.7708407232418782 0
-0.6585259074261582 -0.3902903447139428 0
0.7871098613864753 0.19122159928681318 0
-0.2565566698535929 0.9496421488683937 0
0.033560863139993236 0.5467669852966488 0
0.2666913684754055 0.9632661704484494 0
0.2127256886849651 0.4806852374967106 0
0.30348878845895527 -0.9519754095713281 0
0.48041994280755396 0.6316754678388662 0
0.0007951820343153041 -0.07137267842635343 0
0.047621927974042175 -0.754251198022545 0
-0.5705142166374664 0.7991152204994734 0
0.22313450465062964 -0.39446739802063624 0
0.534714158556697 0.1407299191500585 0
0.1751829741599481 -0.981564925437955 0
0.6191026216921917 0.35197489031028156 0
-0.7022646716407054 -0.45520344705117666 0
0.9470494128297089 -0.09710035500766821 0
-0.928877730736874 0.2577467837862026 0
0.40929189709046876 -0.8907201398850241 0
0.6609875760729615 -0.5950570915248741 0
0.8577501169030527 -0.5140494667587382 0
0.9200222169649619 0.3860142456882546 0
-0.6580327411526773 0.7428506102246988 0
0.4340036473705636 0.8925276229281216 0
-0.6446586416897844 -0.6831589269116659 0
0.9307606246735524 -0.3655067227922547 0
-0.8704095120412751 0.19542081796900843 0
0.2158416944873355 0.5693206160525981 0
0.7159799488529266 0.2592992879629507 0
-0.5104580762931477 -0.7540311002937437 0
-0.045422320907439924 0.7671484736058473 0
-0.17798274844598594 -0.8708217225917351 0
0.43828669110987367 0.5805047372242405 0
0.9250688653059707 -0.11480596008580919 0
-0.6461001482419327 0.2993843887815871 0
-0.7816409170513375 0.6227221695938782 0
0.25717707080133895 0.8351237558425981 0
-0.20758408578710347 0.6986298614683898 0
-0.5673532258990308 0.6254494815949407 0
0.5162152752018385 0.7496777384042016 0
0.6025138987035005 -0.7565894585900931 0
-0.910874467251001 -0.22662683563228897 0
-0.3324705428675302 0.8420767323116912 0
0.508552037894057 -0.09796858331142672 0
-0.3524823171331451 -0.04008667468880031 0
0.2614077621498481 -0.7514392916026473 0
-0.7390824793909735 0.03330599866411494 0
-0.5892313835168843 0.3208271355953731 0
0.8025188829643555 -0.38850060457882296 0
-0.9707495893905296 -0.013795211187851441 0
0.8861910401505891 -0.41417823320028246 0
0.23686350978878298 -0.7910044986957017 0
-0.014643178464914605 -0.46511874890018534 0
-0.07131471706316359 -0.9319036585011453 0
0.6267375486648731 -0.7084242324596797 0
0.045112510416279485 0.9920328195254762 0
0.6668828832831459 0.5875808314730194 0
0.7295355333645507 -0.5807358959865978 0
-0.29071210684048143 -0.5039094609191452 0
-0.1427887318045087 0.6031628434872978 0
-0.5896129129422536 0.5406175463573379 0
-0.041133332584946496 0.9724960644399395 0
0.88170558415925 -0.28812763297046057 0
-0.022270341557081245 -0.7806876337492966 0
-0.3688047529463148 -0.42983254073295507 0
-0.439007924425077 -0.8532373105710878 0
0.7849643734632584 0.2523563079573109 0
-0.690426471571009 -0.6559053022042708 0
0.44032894624770114 -0.529767444870043 0
-0.6432437591085082 -0.292528955177077 0
-0.25398832929495374 0.9648492356450165 0
0.18840483778526623 -0.9781133055923861 0
-0.8067495071559795 0.2591808879513366 0
0.08754119313131227 0.9960349498817974 0
-0.794092306673437 0.48086403978065745 0
0.9374614706631265 -0.3459739990550494 0
-0.023299881975665192 0.7721422882171027 0
-0.6776402895866299 0.6850253587341348 0
-0.19001642228308754 0.18448857325445123 0
-0.16136931869092871 -0.07414967867487937 0
-0.955259364250555 0.02472913646756686 0
0.5003625414664762 0.8627105531814124 0
-0.019172127412529036 -0.51719376498557 0
-0.10546826811382591 -0.8402591836918633 0
-0.26409027367304144 0.12372657398627786 0
0.11966985256463075 -0.6622029775417623 0
0.901297987552503 -0.20288564999778785 0
-0.63025707161434 -0.5614868671086286 0
-0.4531846361252488 0.36598997359242547 0
0.45196435112738376 0.30667739427642177 0
-0.021513821964836644 -0.7774482356174173 0
0.0879108074891499 0.6258008247631661 0
0.2923535226016714 0.11542599139182974 0
-0.6652600249322174 -0.5169296778328907 0
0.3736662797864841 0.6335704991357531 0
-0.41035162100788236 0.25432177472539047 0
-0.4561775632226975 0.8492759872207382 0
-0.7053874126550507 -0.5171764554314571 0
0.7870243752117851 0.4356408117547519 0
0.3465242605944269 -0.39322392462878314 0
-0.2095287752376428 -0.20886517889310105 0
-0.5551426045935652 0.1844345134040399 0
-0.9344812829324596 -0.3505468473460324 0
0.8932473830148968 0.1490000410878978 0
0.11141679883639032 -0.16125895777085442 0
0.43795440710763067 -0.8429780202764183 0
0.36524474235645527 0.8866095973830411 0
0.9602001758991743 -0.08108408688967463 0
0.6304719291413582 0.698313771228361 0
0.5520596739575337 0.6533016893994817 0
-0.8866338644064463 0.12269610233197843 0
-0.5625838600234397 0.5961318454538115 0
0.9584116773892295 0.022616888626480817 0
-0.3239190439824124 -0.8954403925785157 0
0.9010432239260726 0.2779387323297054 0
0.14339978853118385 -0.9199373305707763 0
-0.10851644473449944 -0.6745507603293438 0
0.7434840986401986 0.6594446403102266 0
-0.701423791839832 0.6859909894828978 0
-0.7677047337655404 0.3261600014449305 0
-0.24198067575628124 -0.7739796933315283 0
0.21836967831293885 0.8467525079195629 0
-0.34594859143952295 0.3953856919052346 0
-0.11126590941001727 -0.8048584853644101 0
0.7787392875767365 -0.5746611971182599 0
0.7506878469699596 0.5571236281864053 0
0.05498291542262864 0.26914018571044035 0
-0.5465821928285349 -0.8360313568992723 0
-0.4533873189126039 -0.6449053769688411 0
0.9374271543199081 -0.20158530975578973 0
0.03996630224578303 -0.4951100821821416 0
0.5801710802009981 0.81426615429611 0
0.44604417122339934 -0.7622225731678955 0
0.002584987482108322 0.9229516450058468 0
0.34509742463181076 -0.7899222388594734 0
-0.784798902759312 0.4988295904447268 0
0.7068755684998204 0.6894021990116057 0
-0.8874497509096078 -0.4606172527288916 0
0.46880666424261674 -0.8089816326534573 0
-0.03995482439937577 -0.9745373452524021 0
-0.84117450877668 -0.2912846672300187 0
0.24532035667905586 0.3620428832214623 0
-0.4649181708047599 0.8847637391597678 0
-0.8252415844032279 -0.062396104225394024 0
-0.1493999866584568 0.8869492862712874 0
-0.08321387846086752 -0.22300280241170542 0
0.33744412370152754 0.8039462750519456 0
0.4875035435515757 -0.7096134377621308 0
-0.3885011745768516 0.8213062199502776 0
0.5304187265903879 0.3574461612694094 0
-0.49530035825938773 -0.8136179331943714 0
-0.9901937692370872 -0.005571078569561719 0
-0.21498273280748825 -0.647928443182201 0
0.8191021832478794 0.5651762254019536 0
-0.6971102525846915 -0.6812632843672134 0
0.32391020675608884 0.0031757048634621626 0
0.2884137995801287 -0.14645546264926174 0
-0.31816274341478507 -0.8587800589111838 0
-0.769920186792589 -0.519753876545219 0
0.12099939533874152 0.5743329475497306 0
-0.39088265123529964 -0.44571335397240575 0
0.13507735866833676 0.804208502284183 0
-0.6366257674559789 0.7014893470944266 0
-0.9925628301112838 -0.09862777915794582 0
-0.8654865513777283 0.4821677116521424 0
-0.607244377377914 -0.7945035638860485 0
-0.3376869699744218 0.781165427598324 0
-0.2655811366775492 0.9411856640407942 0
-0.6494476996895239 -0.05368362947009882 0
-0.1099468311314535 -0.8448613016799962 0
0.8947463496139545 0.04195459786608866 0
-0.06708434523768646 0.7272672312723499 0
-0.35119346242398425 -0.9303332684533053 0
0.5568092519979443 0.3667608129450571 0
-0.776794975582707 -0.5862521638722525 0
0.8504893887048743 0.31173706798943684 0
-0.6422427664884576 -0.2762228477857483 0
-0.23021383130519457 -0.1510902014329811 0
-0.3604259885657924 0.9300929004194981 0
-0.10188465754663163 0.5190475642430454 0
-0.4393148621442057 0.8291745466482728 0
0.6617151733185 0.7483127329089 0
-0.03213861338902057 -0.10954713188761155 0
-0.0798656255537264 -0.9967995505973621 0
-0.43463961283336955 -0.8110746716605937 0
-0.08779571799175809 -0.9519717200059271 0
0.9274872973455245 -0.328480655786862 0
0.30733870321166606 0.4076603075826019 0
0.7522272913931947 -0.648473661651868 0
0.02177707406443967 -0.1527327747289405 0
0.9097577006586572 -0.14545640211051422 0