# vtk DataFile Version 2.0
test
ASCII
DATASET UNSTRUCTURED_GRID
POINTS 19996 float
-0.999723 0.023446 0.002110
-0.988665 0.026084 0.147857
-0.999720 0.022181 0.008276
-0.995763 0.071902 0.057330
-0.993200 -0.005429 0.116293
-0.972797 0.229943 0.028153
-0.714942 0.698124 -0.038476
0.386778 0.686103 0.616170
-0.983255 -0.089374 -0.158812
-0.997047 0.014642 -0.075384
-0.998373 -0.021502 -0.052805
-0.999475 0.004455 -0.032090
-0.998223 0.023126 -0.054912
-0.998162 0.022632 -0.056212
-0.986981 0.006178 -0.160716
0.980098 0.198515 0.000433
-0.999707 0.017348 0.016892
-0.996134 0.038949 0.078737
-0.996206 0.025774 0.083124
-0.991095 0.038015 0.127612
-0.988961 0.025965 0.145887
-0.991244 0.019249 0.130636
-0.995361 0.086685 0.041732
-0.999637 0.026928 0.000796
-0.996667 0.075854 -0.030026
-0.996835 0.057547 -0.054851
-0.997439 0.048863 -0.052229
-0.824131 -0.261137 0.502609
-0.667384 -0.101834 0.737719
-0.952587 -0.091220 0.290270
-0.971118 -0.035083 0.236007
-0.934155 -0.046247 0.353857
-0.927876 -0.020148 0.372344
0.977599 0.203167 0.054984
0.952492 0.039767 0.301956
-0.153433 -0.290419 0.944518
-0.001013 -0.208413 0.978040
-0.018711 -0.279077 0.960087
-0.009736 -0.262165 0.964974
-0.014443 -0.249399 0.968293
0.363148 0.843958 -0.394788
-0.074177 0.995386 0.060859
-0.072348 0.996329 0.045766
-0.313143 0.941729 -0.122838
-0.441802 0.651270 -0.616975
-0.421254 0.655516 -0.626773
-0.420865 0.655847 -0.626687
-0.768023 0.571940 -0.288139
-0.759612 0.577732 -0.298688
-0.744203 0.575938 -0.338316
-0.720693 0.564417 -0.402536
-0.968297 0.242486 0.060004
-0.829823 0.553166 0.073497
-0.738911 0.673009 -0.032690
-0.014389 0.904428 0.426383
-0.304282 0.438916 0.845438
-0.399686 0.811034 0.427170
-0.495964 0.743737 0.448191
-0.528235 0.730127 0.433455
-0.010991 0.026455 0.999590
-0.059086 -0.010568 0.998197
-0.132634 -0.002710 0.991161
-0.062257 0.037342 0.997361
-0.061091 -0.010730 0.998075
-0.055089 0.768073 0.637988
-0.999885 0.012043 -0.009269
-0.999683 0.005450 -0.024561
-0.991252 -0.037407 -0.126567
-0.996462 -0.070676 -0.045471
-0.997944 -0.030339 -0.056452
-0.984533 -0.149613 -0.091166
-0.984796 -0.167433 -0.046283
-0.986610 -0.145914 -0.072868
-0.996424 -0.068619 -0.049306
-0.984888 -0.144230 -0.095884
-0.987096 -0.117277 -0.109034
-0.983964 -0.002169 -0.178355
-0.983956 -0.020371 -0.177244
-0.977717 0.016973 -0.209241
-0.957271 -0.067892 -0.281111
-0.991498 -0.018685 -0.128775
-0.991332 -0.030245 -0.127848
-0.991412 -0.034966 -0.126014
-0.996020 0.014049 -0.088019
-0.993675 0.026901 -0.109021
-0.746144 0.312168 -0.588065
-0.988450 0.144549 -0.045518
-0.990105 0.134271 -0.040782
-0.987665 0.074848 -0.137533
-0.987783 0.037497 -0.151259
-0.744412 0.504720 -0.437159
-0.977848 -0.191806 -0.083810
-0.917717 -0.353410 -0.181377
-0.757546 0.166868 -0.631093
-0.728196 -0.114824 -0.675682
0.547358 0.617965 -0.564374
0.522178 0.757177 -0.392445
0.907576 0.292807 -0.300948
0.968179 0.218554 -0.121915
0.225636 0.198767 -0.953719
-0.006164 -0.629726 -0.776793
0.524795 -0.278690 -0.804315
-0.524919 -0.494014 -0.693117
-0.508979 -0.460847 -0.727022
-0.510766 -0.489592 -0.706695
-0.495671 -0.496504 -0.712596
-0.214492 -0.731653 -0.647052
-0.989019 -0.001989 0.147772
-0.977505 -0.012395 0.210548
-0.975640 -0.029933 0.217327
-0.985335 -0.020645 0.169380
-0.986940 -0.033296 0.157612
-0.998554 0.025671 0.047224
-0.998559 0.002321 0.053613
-0.999476 0.018386 0.026643
-0.995500 0.067221 0.066797
-0.995892 0.044019 0.079129
-0.993308 0.051024 0.103612
-0.987541 0.080734 0.135075
-0.989597 0.070788 0.125249
-0.996271 0.081641 0.027899
-0.995858 0.090924 -0.000788
-0.998649 0.051924 -0.001808
-0.996975 0.073879 -0.024125
-0.990133 0.134368 -0.039781
-0.992799 0.116890 0.026216
-0.973351 0.217066 0.073953
-0.984488 0.144832 0.099029
-0.986521 0.082454 0.141339
-0.986942 0.033260 0.157603
-0.953931 -0.091812 0.285634
-0.956347 -0.086311 0.279198
-0.960951 -0.120757 0.248978
-0.976508 -0.079246 0.200380
-0.968198 -0.030617 0.248304
-0.956436 -0.034803 0.289862
-0.976110 -0.099957 0.192918
-0.934709 -0.045151 0.352535
-0.952898 -0.045582 0.299847
-0.952985 -0.044585 0.299721
-0.929889 -0.069262 0.361261
-0.930143 -0.071040 0.360261
-0.915591 -0.108327 0.387246
-0.984893 -0.169064 -0.037453
-0.705123 -0.157150 0.691452
0.999944 0.006369 0.008464
0.998933 0.041030 0.021179
0.984856 0.126761 0.118284
0.984484 0.121985 0.126136
0.990514 0.132204 -0.037486
0.991441 0.130321 0.007784
0.993432 0.114387 0.002780
0.907947 0.390619 0.151821
0.944609 0.290175 0.153339
0.775575 0.630916 0.020679
0.926559 0.053182 0.372371
0.584468 0.060243 0.809177
0.679282 -0.020811 0.733582
0.707313 -0.014657 0.706749
0.948702 0.281833 0.143299
0.894766 0.423490 0.141597
0.950804 0.052295 0.305346
0.950777 0.076782 0.300212
0.933400 0.073447 0.351240
0.574101 -0.432806 0.695045
0.556286 -0.415175 0.719844
-0.015472 -0.025947 0.999544
0.903722 -0.023692 -0.427464
0.818585 -0.502797 -0.277693
0.996256 -0.063955 0.058170
0.884743 -0.460929 0.069099
0.887807 -0.456059 0.061717
0.911487 -0.406298 0.064136
0.910884 -0.407405 0.065658
0.985918 0.032926 0.163954
0.981578 0.030998 0.188529
0.756235 -0.654300 -0.000723
0.423872 -0.568913 0.704749
0.563820 -0.584450 0.583545
0.566316 -0.559885 0.604826
-0.128338 -0.292539 0.947602
0.346747 0.835506 -0.426258
0.319348 0.843172 -0.432525
0.416972 0.809018 -0.414275
0.447761 0.796553 -0.406218
0.434845 0.799261 -0.414839
0.513455 0.797801 -0.316033
0.489550 0.826195 -0.278824
0.503202 0.800557 -0.325417
0.453059 0.831290 -0.322016
0.471094 0.823460 -0.316204
-0.089340 0.983275 -0.158711
-0.052116 0.981170 -0.185982
-0.272164 0.830007 -0.486842
-0.264738 0.846704 -0.461525
-0.226155 0.835695 -0.500468
0.299616 0.768174 -0.565808
-0.312318 0.940803 -0.131711
-0.335120 0.928148 -0.161976
-0.332480 0.930134 -0.155907
-0.285337 0.945437 -0.157260
-0.219294 0.955739 -0.196146
-0.231823 0.955303 -0.183450
-0.297484 0.933571 -0.199870
-0.248782 0.949689 -0.190258
-0.282811 0.941687 -0.182330
-0.069648 0.976341 -0.204713
0.031675 0.999350 0.017201
0.030572 0.999214 0.025232
0.019315 0.996139 0.085635
-0.001971 0.997819 0.065985
-0.313334 0.949600 0.009081
-0.357525 0.933581 0.024544
-0.305488 0.952104 0.013253
-0.338512 0.938938 -0.061677
-0.331367 0.942701 -0.038861
-0.325576 0.944878 -0.034713
-0.300225 0.948576 -0.100345
-0.186057 0.980921 0.056358
-0.721919 0.152649 -0.674931
-0.714648 0.177170 -0.676675
-0.554193 0.005400 -0.832371
-0.250720 0.228871 -0.940615
-0.601883 0.539315 -0.588962
-0.590664 0.543787 -0.596165
-0.585485 0.495762 -0.641426
-0.462388 0.624770 -0.629174
-0.529658 0.546944 -0.648317
-0.550798 0.555662 -0.622785
-0.583558 0.542348 -0.604416
-0.316117 0.481317 -0.817560
-0.386480 0.628171 -0.675303
-0.413313 0.640959 -0.646795
-0.430052 0.606133 -0.669072
-0.429508 0.598843 -0.675951
-0.397494 0.638547 -0.658982
-0.389720 0.629179 -0.672497
-0.430854 0.591806 -0.681271
-0.568601 0.455975 -0.684675
-0.565005 0.486420 -0.666456
-0.583461 0.468977 -0.663049
-0.572542 0.481124 -0.663864
-0.551108 0.557269 -0.621072
-0.581040 0.566358 -0.584492
-0.816871 0.540973 -0.200173
-0.740514 0.579801 -0.339809
-0.729686 0.618063 -0.292500
-0.350433 0.920622 -0.172199
-0.403023 0.899662 -0.167872
-0.404060 0.892123 -0.202118
-0.328948 0.917353 -0.224181
0.806432 0.367872 -0.462965
0.801081 0.354481 -0.482300
0.781583 0.407157 -0.472601
0.769311 0.390451 -0.505677
0.753084 0.407525 -0.516514
0.721895 0.505792 -0.472272
0.703564 0.527161 -0.476549
0.582562 0.617985 -0.527935
0.572522 0.613609 -0.543785
0.567642 0.615639 -0.546599
0.575492 0.643614 -0.504549
0.537641 0.390511 -0.747291
0.175633 0.413065 -0.893605
0.378575 -0.221151 -0.898762
0.386467 -0.205841 -0.899040
0.414258 -0.212123 -0.885095
0.400228 -0.201727 -0.893937
0.687860 -0.164234 -0.707019
0.692246 -0.223504 -0.686179
0.727044 -0.218659 -0.650842
0.705469 -0.187002 -0.683625
0.704964 -0.194874 -0.681946
0.635610 -0.070195 -0.768812
0.865843 0.167694 -0.471376
0.696157 0.054850 -0.715791
-0.955683 0.291725 0.039572
-0.961858 0.270795 0.038721
-0.866986 0.492758 0.074334
-0.906888 0.416426 0.064371
-0.894407 0.435863 0.100300
-0.895920 0.441669 0.047490
-0.879314 0.473194 0.053797
-0.885302 0.460915 0.061624
-0.789506 0.573695 0.218068
-0.754742 0.645217 0.118576
-0.729063 0.679208 0.084521
-0.781475 0.623892 -0.007497
-0.802676 0.586944 0.105867
-0.805392 0.582952 0.107288
-0.735650 0.674726 0.059702
-0.738520 0.671957 0.055323
-0.752624 0.654502 -0.072008
-0.752637 0.656970 -0.043917
-0.774200 0.632043 -0.033701
-0.770029 0.637188 -0.032335
0.121860 0.871856 0.474360
0.129586 0.858362 0.496409
0.120971 0.828354 0.546988
0.089201 0.838230 0.537971
0.090068 0.814963 0.572471
0.141725 0.854497 0.499749
0.052896 0.837585 0.543740
-0.152370 0.977005 0.149149
-0.005024 0.955888 0.293687
0.051066 0.932862 0.356595
0.044290 0.939369 0.340035
0.025457 0.916390 0.399477
0.167451 0.957434 0.235117
-0.660939 0.569406 0.488811
-0.624223 0.596584 0.504413
-0.623201 0.597687 0.504373
-0.584364 0.611001 0.534038
-0.609803 0.585947 0.533673
-0.551517 0.597109 0.582487
-0.571449 0.601407 0.558351
-0.559498 0.631280 0.537073
-0.568186 0.617258 0.544204
-0.575046 0.576771 0.580222
-0.592122 0.582254 0.557110
-0.604287 0.573678 0.552928
-0.294473 0.483193 0.824506
-0.329230 0.450817 0.829682
-0.323930 0.542060 0.775397
-0.756555 0.431513 0.491347
-0.739214 0.419172 0.527121
-0.694517 0.415500 0.587372
-0.732944 0.370477 0.570561
-0.733171 0.421424 0.533725
-0.721211 0.408588 0.559384
-0.708383 0.458669 0.536485
-0.742042 0.472814 0.475207
-0.732670 0.508406 0.452458
-0.711562 0.479226 0.513831
-0.336313 0.762782 0.552320
-0.453613 0.648455 0.611344
[...]
CELL_DATA 10000
VECTORS vector float
-0.4365540468817552 0.7196999338233678 0
0.36107606620973676 0.47199748038013045 0
-0.38750744414923477 -0.8852612405878808 0
-0.6381203835680915 -0.7366697243118091 0
-0.23936901097386407 -0.3727396340553204 0
0.45998442237588044 0.8302345132832969 0
-0.07824903799223916 0.2999507389542316 0
-0.08796394554152623 0.7086524709926145 0
0.017570525908936936 0.9673731508421018 0
0.7096579085461557 -0.2494785174740115 0
0.5358279768890832 -0.6672707512568959 0
-0.6978773758658245 0.5953734653224597 0
-0.40248203011170075 -0.7428136573942714 0
0.060123112017464314 -0.9685471047401257 0
0.4049508630639223 -0.6873538112346119 0
0.854117508341757 0.5114588566830409 0
-0.3147500319245711 0.4436665398726404 0
-0.12287345973977407 0.9154910996039006 0
0.0024809665653290117 -0.6888098249382455 0
0.25201093213641923 0.1224123697676447 0
0.7801804563837119 0.01173789662799581 0
-0.6084159914702761 -0.6211451651104044 0
0.38448572044338386 0.7017253689876602 0
-0.3399613763771343 0.3490623912348816 0
0.44640104168975403 0.24578216408790893 0
-0.35660851420418077 0.9143165102066312 0
0.27677717437433275 0.8882359920830277 0
0.8504509060374158 0.3630711000330342 0
0.04550466737293593 -0.45893305146367686 0
0.6968776501008138 0.2810029695511235 0
0.8875376235927982 -0.366013791323153 0
-0.38349201428574897 -0.34522932432057735 0
-0.2500043913012334 0.7165454920889216 0
0.5878468810384002 0.7494269623035764 0
0.39008985127627144 -0.9136433107387967 0
0.1533546137512944 0.7759717002939018 0
-0.5474632509770518 0.28038012256818146 0
-0.35132619819318883 -0.7222903831015173 0
-0.4400615038272776 -0.8426964752411481 0
0.03731555257591615 0.8026428563515982 0
0.5520195928394172 -0.3681522439524688 0
0.2027146929472977 -0.10473487626857414 0
-0.4871689220130874 0.020312788378285755 0
-0.602147457039656 -0.6855448490075777 0
0.14970627158992397 -0.616585872324375 0
0.17420798651624672 0.9845163247977428 0
-0.549491043938203 0.23446189663970488 0
-0.7242461903959418 -0.5109463869605337 0
-0.25403533210819584 -0.9671636513276591 0
0.9939137726698946 -0.10020764933559509 0
-0.023375057977278187 0.7936824844121512 0
0.9557164748994651 0.267488430797878 0
-0.9305877204650796 -0.13034019103918207 0
-0.3965887565309298 -0.6433459666808863 0
0.5038271491432862 0.44996011733229024 0
-0.9200766595587145 -0.297191630491232 0
-0.569932187987258 -0.8117920832764629 0
0.38013011400641766 0.05106260424654689 0
0.3758008227082227 0.06371665283130257 0
0.545594534144216 0.4807437770408729 0
0.7307999072918333 -0.6338556619493079 0
-0.6307768480262631 0.7758368786262895 0
-0.5805230684732381 0.27327105998778206 0
0.9875153109121713 -0.15345056628488188 0
-0.11613729778929292 0.9371446269923002 0
-0.4055752268990467 -0.39516994841330755 0
0.8337837824215247 0.39104672660110085 0
-0.7097507941296517 -0.27942593865757015 0
0.40134631307787716 0.22356416024645495 0
-0.6012625752872711 -0.7877956006268971 0
-0.5589592851065821 -0.7504611306459842 0
0.7282055449263407 0.21557151434101388 0
0.09416100213250438 0.04258655769041944 0
-0.8868958190605769 -0.02770072928597607 0
0.039043397598286365 0.998420830399879 0
0.18872470661223464 -0.12089288143852443 0
-0.1896186645252352 -0.8948867107995242 0
0.020080969568415305 0.5299937123046968 0
-0.3716498401223343 -0.8838117332645891 0
-0.7176310729685031 0.5762579897797035 0
-0.015554572893272502 0.09235398210908503 0
0.11473252123445979 -0.9628438645194022 0
-0.8557841300186749 0.24897126536108702 0
0.8508169274608565 0.5225968566863227 0
0.16513752840412768 -0.9760445409812419 0
-0.964468674679807 -0.24870616336322926 0
-0.6744309245701824 0.7336735919370735 0
-0.04282558090913322 0.27304352670313414 0
0.2750889717516856 -0.9381700217554856 0
-0.6603695599905175 -0.716691878407692 0
-0.2148754474037325 -0.9567648615842599 0
-0.41889587051444177 -0.6994008999115551 0
0.739778051415304 0.13996469913775378 0
0.9123347448342434 0.20731707717696915 0
-0.09519902062042097 0.6250380463168437 0
-0.004752883626403489 -0.9455538475678514 0
-0.4386659654885795 -0.24311746258425643 0
0.7568967974675318 0.2911730359910111 0
0.36782397386766275 -0.9298432117289536 0
-0.8697773340968058 0.48106155567202874 0
-0.05812590630974608 -0.11577494338886382 0
0.737851571176115 0.6294330554008708 0
0.646856567072896 -0.7506368622285607 0
-0.2593072863943363 -0.773972155622779 0
0.8102081697182711 0.20211490826522605 0
0.7866159429029985 0.39244203312066195 0
-0.2511824856233041 0.7229905403731521 0
0.3191093797417922 -0.25345340352233536 0
0.7389862197349815 -0.5650207147113668 0
0.039207826258280336 0.6926529385719615 0
-0.7640593913321153 -0.29257940753558725 0
0.20097298676640993 -0.12393369229278303 0
-0.5653555777685758 -0.7678121064478629 0
0.5603595624582727 0.265360923457629 0
0.44671589134887807 -0.8462770679704122 0
-0.8091965125476989 -0.4451191952888184 0
-0.1862484736416036 0.9416679426881789 0
-0.42778730532440884 -0.14120630370981097 0
0.008364220784874267 -0.8075922237218682 0
0.2566352457850432 0.96650747311667 0
-0.5733202797017978 0.5352444940857544 0
-0.835261492879114 -0.27796192887210425 0
-0.9831866617978416 -0.14324606948303611 0
0.19878520178174955 0.9199975099557391 0
-0.9446367764289845 0.15746721606105255 0
-0.6821449850094492 -0.7231227628265188 0
0.8161076455648397 -0.4296499013153504 0
-0.42193822417829624 0.013167796459882659 0
0.09497190328951563 0.9596415131662174 0
0.5859313049383553 -0.7828968881183241 0
-0.056243913284220085 -0.06910903099978574 0
-0.09935677341634368 -0.1566878962072942 0
-0.4120939305630491 0.34923804772118994 0
-0.7809559585587619 0.5800711415687266 0
-0.13853444093437403 0.9754154864951925 0
0.4655131797619276 0.5661042709189376 0
0.3865242509982639 -0.3089350293163734 0
-0.4830038857004422 0.5937185980328067 0
-0.7809679194428282 -0.5298481304650109 0
0.05335041679205653 -0.557333788519518 0
0.31096079638379714 0.6747611321748304 0
0.2655413867307259 0.921921528728042 0
-0.4647263472091048 -0.25931358111796887 0
-0.05238894692614454 0.07941673537478294 0
0.010202562956915828 0.11324762441241044 0
-0.4550063154827545 -0.13810676268594052 0
-0.4124468515264753 0.7002606614048811 0
-0.2005116899502804 0.23718713090057028 0
-0.18019378656345295 0.286121121869258 0
0.9213085742368488 -0.3742405997194139 0
-0.23725167200645716 0.8475794644922043 0
-0.9669590280092708 0.22190125134013092 0
-0.40175241095887765 -0.9065114038828542 0
0.16731942142754563 -0.9848607389443265 0
-0.1980638220809366 0.7758728676768472 0
0.009785607938028577 0.989878210836257 0
-0.37464849762821506 0.6393384836323026 0
0.6474755042284323 0.3416728158461144 0
0.3220763144440597 0.813916493104345 0
0.827145203119773 0.1207964266092354 0
-0.2451646537567156 0.1453623020000001 0
0.7525830860421201 -0.023583318237792597 0
-0.39087515923040794 -0.4038608466228096 0
-0.3996162120536886 0.22099878689205665 0
-0.5009916587666275 0.7601512182540269 0
0.314132334008852 0.65370174475194 0
-0.2871550314902597 -0.55686760775591 0
0.763472938391943 0.2511310899664029 0
0.33361534098647516 0.17559396492060428 0
-0.819343178454551 -0.5552746699518865 0
0.22294416764451738 0.7523183615424582 0
-0.5677196074080245 0.3111383954439036 0
0.5185919165488622 0.20426064574703942 0
-0.3266362785426252 0.08075435213763943 0
-0.41829106540385436 -0.4482721761269699 0
0.2993267659810257 -0.7319829984213184 0
-0.7221736358351295 0.5258047283131114 0
0.11773981580355646 0.9606766289021422 0
-0.7966914893119086 -0.3148954675852975 0
-0.8017340052187704 -0.5390056875682986 0
-0.5138103842095522 0.7213881433912608 0
-0.8439872433499365 -0.15052589562433702 0
0.05451973616053779 0.9982074605653776 0
-0.8437110048438508 -0.17200470476498417 0
0.9830111641849432 -0.11876171287511231 0
0.6081157014412895 0.7929639432434897 0
0.15677223583486496 -0.6862330182428074 0
0.07661087108459198 -0.16836664221899728 0
-0.9014223237833785 0.3179520651224538 0
0.44293757619459107 0.5039662931934825 0
0.21134537215421123 -0.9461224696558078 0
-0.40463473946792705 0.2996867990674191 0
0.9473451568162898 -0.11230333735811023 0
0.31274464383171213 0.8425093876998205 0
0.16683094964545286 -0.9776050900430917 0
-0.6656624540913189 -0.25808839098782294 0
-0.2552318236900893 -0.8378755953245844 0
0.975760517173557 -0.12934708253458777 0
0.6147823732382156 -0.027068078717636685 0
0.3121599073919109 -0.9500288668428494 0
-0.5172993060337414 -0.7808394400198748 0
-0.21166800239573302 0.9565399276669098 0
0.6221999708438873 0.7680633540408729 0
0.04172574765770222 -0.28938970210655196 0
-0.024730017668319643 0.7325054910243415 0
0.07450160880775542 0.7479072482617647 0
-0.7446978404084359 0.02532682990135021 0
0.46445653471651366 0.8489423499334712 0
-0.34463620557135916 -0.6712992489289777 0
0.2832109656648772 0.9316937528530824 0
-0.7435434436620421 0.4775214164321626 0
-0.9193828765915505 -0.3932591698420878 0
-0.007461116489896951 -0.2258189650782964 0
-0.6462776994726632 0.6799085636091496 0
-0.19265780348121148 -0.413532141017665 0
-0.05259421641901156 0.862448082740858 0
0.22087450594426436 0.01995495551534001 0
-0.14377349795155245 0.8038222600644062 0
-0.92028187472817 -0.032291048580089354 0
-0.30345402728285253 -0.8059648027899938 0
-0.006336206035561405 0.9663433404448796 0
0.45211094362847015 0.8578729641578443 0
-0.7715517730989205 -0.53184195622148 0
-0.8278192560058419 -0.19236468134941434 0
0.5995541795247874 0.20843545432719898 0
-0.1358117425290357 0.2896401389822774 0
-0.06617947830534716 -0.8244585792070664 0
-0.38657884857100977 0.06568769194915457 0
0.9724153360561392 0.23299629531466318 0
-0.946294480703302 -0.27125600897529034 0
-0.01837728899773009 -0.9765118202170213 0
0.07133630445927253 -0.6829123593714775 0
-0.4300202208267604 0.8238675293799952 0
-0.6243884996845782 0.7120399491552535 0
-0.6934262569486166 -0.6871109641102305 0
0.4679216667559671 -0.7910039793373604 0
0.6108162926740506 -0.4801883026633827 0
-0.5561493620251232 0.031053214305639707 0
-0.10262142897010396 -0.5890437737267785 0
-0.8271724099594676 -0.5604654919548334 0
0.6920539826072365 0.7062375461641338 0
-0.8055172584725944 0.36501830328302903 0
-0.4424735558175749 -0.8833849744153903 0
-0.9184501549771472 0.11677183482799086 0
-0.573234564833061 -0.5476867527435677 0
0.451346508539917 -0.5410460837235731 0
0.642591693845646 0.4895283137891858 0
0.810468522059975 0.02863473301929986 0
0.17986010232637764 -0.9720866794795391 0
-0.49827704882007623 -0.45741683786536314 0
0.14620359521052675 0.9854317685350515 0
-0.7625389298967277 -0.6456427887000085 0
0.30371420405676536 -0.9438366506351833 0
-0.0022037071470808853 0.8133171105877671 0
0.4430100044136451 -0.7304216265513434 0
0.9485066748635679 0.21139951188812578 0
-0.5309097164527661 0.8272246554084006 0
0.4741778910360305 0.1669994748203654 0
0.12205330728071394 0.20645151094234587 0
0.03939804555361303 0.4431386560249109 0
-0.8778950130089318 -0.4777890228130355 0
0.5570457968734533 0.3521747989775427 0
-0.9352213349021729 0.0458587090087027 0
0.3494428905211027 -0.5966901582398701 0
0.5636717791165112 -0.7233702352128282 0
0.16300364250889904 -0.4065630146622878 0
-0.16463627654707955 -0.27274241133341753 0
0.3783488594743066 0.2713217860873267 0
-0.7846939424088213 -0.3027751564535432 0
0.3823527279656126 0.23208045104825964 0
-0.7954890802776402 -0.38655787780374656 0
0.9671110019299325 0.07654630321805404 0
-0.4511259322897587 0.5809775686752452 0
0.788289854718455 0.4848536546301191 0
-0.6689266927456687 -0.5104975399266597 0
0.9453967945896128 0.2761715300099672 0
-0.7027270606458651 -0.08402184049446645 0
0.1676926527689205 -0.9115179002349911 0
-0.8156204677963036 0.2257696142062957 0
0.20113664517283103 0.881819161419522 0
0.4981708682208883 -0.2593992880813205 0
-0.11178512775034714 0.07680978365613486 0
-0.6607580307458424 0.5804213514540061 0
0.3993366142064276 0.5148309137181631 0
-0.7527273113243977 -0.5978243262553853 0
-0.9697207204856708 -0.18971970952157044 0
0.1265577440997064 0.25162456904868685 0
0.9591863828026909 -0.2627314893930803 0
0.3602297840303034 -0.6592001485960144 0
0.09210724141495132 -0.7318743851988547 0
-0.6715050286383593 0.7374881028219751 0
0.9759939556339705 0.18152360317943075 0
0.7470334119286147 0.5123724547669035 0
-0.7643690577931571 0.15017777525069112 0
-0.6587715926667893 -0.6670827150625264 0
-0.5142155878670304 -0.5121725727946976 0
-0.6878472226368516 -0.32923076430550535 0
-0.6404392525077384 0.41460287689678416 0
-0.7867740577639811 0.5400380837984051 0
0.6427116012249223 -0.6859737966564555 0
-0.2411595286492078 -0.19654300292006502 0
-0.8904291284672098 0.028116304826675112 0
-0.2463427759792432 0.9069883539007452 0
-0.6837378142671812 -0.6913277000453067 0
-0.4290521075592674 -0.83498897088841 0
0.5800102863841354 0.26205231321843236 0
-0.8910815662443067 -0.4433157132446758 0
0.7161952947349328 -0.6804974495802671 0
-0.8706961437452245 0.47463460392581325 0
0.4510571933581157 -0.8326632784695964 0
0.2589391760888846 0.32905997287306804 0
-0.41725216281929967 0.11551900859740769 0
0.6056928412592644 -0.28951717019818624 0
0.2731018703713266 0.7727068777541908 0
-0.5678114673017942 0.770460315066312 0
-0.6177057974214832 -0.20486645689448368 0
-0.36543242494122846 -0.5580064400862449 0
-0.7008864060413099 -0.36895528958636137 0
0.7499607076049905 0.050907111442802126 0
-0.09842999230053404 -0.8785642759321454 0
0.9149497370127114 -0.22973340341558238 0
-0.3221740560960888 -0.34468140163365846 0
-0.14525895137582254 -0.6644798825181989 0
-0.4117826028789849 0.9107641505592402 0
0.14250971258021553 -0.9896002163969871 0
-0.8368565295990253 -0.47069445580831487 0
-0.189898174847191 0.39157522785747834 0
-0.6290848954130226 0.020716225057293706 0
0.2625460613539291 0.8963908198503516 0
0.9369736306821009 -0.2069832495262846 0
-0.9338262782338543 -0.33824996854320627 0
0.15573169959064856 0.98274839267629 0
-0.3661234113929568 0.8827360551982572 0
0.6208167113233369 -0.12570459100408504 0
-0.11368596582597944 -0.9574663748313398 0
0.11749918639065378 -0.7396401279332275 0
0.9931722648435126 -0.08365476677563283 0
0.2954925673447374 0.1165536015094545 0
0.06254387793213528 -0.729718717944 0
0.5502001173562384 -0.29205622801441455 0
-0.6098105326737763 -0.36573056420191696 0
0.13230019258649384 -0.6131127223917276 0
0.016979715957911975 -0.529147646718444 0
-0.7293449475947278 0.6764793748231162 0
-0.401224116614044 -0.6346315692636745 0
0.48611689555351845 -0.30166156062147487 0
-0.6566128053295631 0.49197016170204455 0
-0.4105302422523227 -0.13320623148563887 0
0.8180309111166998 -0.4735279789025544 0
-0.5901437442782194 0.08676365810429067 0
0.9046607905572938 0.26446825889732845 0
-0.4930132767879572 0.6425028986239012 0
-0.7138528777080343 -0.0708281577982169 0
0.5721576348137298 -0.3035490339077691 0
0.9769162831252949 0.21008582594737266 0
-0.2605062268638365 -0.5487913627911754 0
0.07373399433382138 0.818793143561913 0
-0.16086924164236904 -0.9863612787607872 0
-0.7660266163489371 -0.5249625898551795 0
0.030406323459561898 0.4284962115562586 0
0.3457735448596651 -0.8784598102076449 0
0.29085781245366976 -0.511158620407474 0
-0.17701913624063811 0.3209972399493249 0
0.9118511366592617 -0.33130755431628184 0
0.6765141175221675 0.5402064526769094 0
-0.7224837002990394 -0.2735072970473014 0
-0.9053639800415838 -0.24872965313073053 0
-0.9798806548477196 0.18666691134548263 0
-0.9443372125074182 -0.32770423780721447 0
-0.9871758927372936 -0.03927626023049998 0
0.6983857701544287 0.04504191248583465 0
-0.09121869553569288 -0.6688502026208737 0
0.10043783727271054 0.5297548300383769 0
-0.4228220400073813 0.2919072424618313 0
0.08036958944999041 -0.3767823691694153 0
-0.17395048284204181 0.4464843001865799 0
0.1626838932911852 0.2572845495134739 0
-0.4563816507854258 0.6292858850798874 0
0.6751822098865031 0.3180255002079515 0
0.5019820259606393 -0.823033070844127 0
-0.40120976102221984 0.19464695329294193 0
-0.7789881237625884 0.22385228733427984 0
0.656841600114643 -0.45538364558704914 0
-0.09165907155037432 -0.23157490695220947 0
0.5617387305875791 -0.8103467159227616 0
0.5673460065606909 0.6491551061785438 0
-0.025188661773544143 0.4621873274957413 0
-0.3009490859863772 0.34076783453523835 0
0.7507976686760207 0.5466848368988794 0
0.593120756055495 -0.13805676256989158 0
-0.3887534724419702 0.8855226647683921 0
-0.3417180671469023 -0.6729013074814706 0
0.22975856757473423 0.061528536213680374 0
0.2594722773819692 0.7886461626693761 0
0.8654602514033496 -0.5005042200099508 0
0.4974567897033555 -0.7170169694625925 0
0.29418743859275914 -0.1576094318976783 0
-0.4947721219608315 -0.36978373587126556 0
-0.3708005499553089 0.48903806280752926 0
-0.5480162124553855 0.6131878344839078 0
0.95676621416638 0.2862459531115237 0
0.5793484105981818 0.7111355512240977 0
-0.29030049156516663 0.18991392438473279 0
0.9542806282952951 -0.29887483254952196 0
0.1836903744403748 -0.7040900980497795 0
-0.30571623859021585 -0.8432319882651487 0
-0.17992840174024025 -0.9718237049816033 0
0.885679136505552 -0.11937912835303939 0
0.8854999718850217 -0.07647441655834318 0
0.7425644264386133 -0.0605282039087336 0
0.5546012143495505 0.786202383660039 0
-0.9575158236248928 -0.08092229901087943 0
-0.28559616344086614 0.15647395880226858 0
0.04277889712814533 -0.1970143722506979 0
-0.5229015157588013 0.266079881649407 0
-0.3678792108894393 -0.37162584283446654 0
0.6178523443788788 -0.5138143433107155 0
0.12048235121834105 -0.8506038435250275 0
-0.01856343055001186 -0.31261628358506516 0
-0.5152666113248954 -0.8557930693592382 0
-0.9719253255693263 -0.1140726445298476 0
-0.8246423047360804 0.3933119929696095 0
0.4987347440888585 0.5445849474234186 0
-0.36870989064183446 -0.9092106552935385 0
-0.271514937747492 0.602018290231495 0
0.16200364652672428 -0.4095445168262451 0
-0.641568652642077 -0.3318512369180172 0
0.9826674731142627 0.1852066116963889 0
-0.8130330188206742 -0.16429073237993944 0
0.7121555910235632 0.3500565834439737 0
-0.07019793490003888 0.8270710160045825 0
-0.9190233772600229 0.12658207399034618 0
0.607546468437445 -0.7443738949777853 0
-0.5188598606234252 0.4958193056977352 0
-0.7083337878803384 0.6402941207454073 0
0.25301382627087193 -0.9662512037835477 0
-0.38097491649456183 -0.8482207921063603 0
-0.02880397134283754 0.06568918806380672 0
0.3623401603427137 0.6390985053649348 0
0.5990164021711116 -0.5768925471563124 0
0.622793961838755 -0.0036244322489492075 0
0.7884922637434082 -0.21489301234961547 0
-0.15474086951725555 0.9809054673518892 0
-0.041263045396253584 0.0354118212380742 0
-0.32837441484374935 -0.8980671606874514 0
-0.7206711416479111 0.676004959305832 0
0.6625622389620558 0.7132971922001076 0
-0.17270679836685096 0.9848900859019912 0
-0.042174540008474024 -0.794397387741228 0
-0.5878447054509541 0.8079995949467802 0
-0.560759885349597 0.12854979762287166 0
-0.49177661196808403 0.8641315725543716 0
0.6600824728239012 -0.7204733026307817 0
0.9797588765790882 -0.13306668952388656 0
-0.48362662197316364 -0.6972382996967351 0
-0.9350112114344387 0.27455205664463544 0
-0.058450919791253 0.6735921169220981 0
0.8298406414411239 -0.06085929939460813 0
0.7730671306945164 0.5158907175190495 0
0.6425779088693993 0.6981211134189137 0
0.43499721415202813 -0.48567987806982016 0
0.5941310245774145 0.22629637580727335 0
0.4841440053678472 0.8090299654037327 0
-0.7546132331188693 -0.2727798043418295 0
0.44729555493914636 -0.6015559714005178 0
-0.5056536123111923 0.7157807344107278 0
-0.9597462275066486 -0.278629861205105 0
0.29287885427474125 0.9147268799238797 0